    1C
    1UUSER                                                              
    1UDATE              27.june.2016                                    
    1UTIME              17:11:15                                        
    1UHOST                                                              
    1UPGM               CalculiX                                        
    1UDIR                                                               
    1UDBN                                                               
    1UMAT    1EL                                                        
    2C                          2060                                     1
 -1         3 0.00000E+00 0.00000E+00-1.50000E+00
 -1         4 0.00000E+00 0.00000E+00 0.00000E+00
 -1         6 1.00000E+00 0.00000E+00-1.50000E+00
 -1         8 1.00000E+00 0.00000E+00 0.00000E+00
 -1        12 1.00000E+00 8.00000E+00 0.00000E+00
 -1        14 0.00000E+00 8.00000E+00 0.00000E+00
 -1        18 0.00000E+00 8.00000E+00-1.50000E+00
 -1        22 1.00000E+00 8.00000E+00-1.50000E+00
 -1        28 0.00000E+00 0.00000E+00-1.31250E+00
 -1        29 0.00000E+00 0.00000E+00-1.12500E+00
 -1        30 0.00000E+00 0.00000E+00-9.37500E-01
 -1        31 0.00000E+00 0.00000E+00-7.50000E-01
 -1        32 0.00000E+00 0.00000E+00-5.62500E-01
 -1        33 0.00000E+00 0.00000E+00-3.75000E-01
 -1        34 0.00000E+00 0.00000E+00-1.87500E-01
 -1        35 8.33333E-01 0.00000E+00-1.50000E+00
 -1        36 6.66667E-01 0.00000E+00-1.50000E+00
 -1        37 5.00000E-01 0.00000E+00-1.50000E+00
 -1        38 3.33333E-01 0.00000E+00-1.50000E+00
 -1        39 1.66667E-01 0.00000E+00-1.50000E+00
 -1        40 1.00000E+00 0.00000E+00-1.87500E-01
 -1        41 1.00000E+00 0.00000E+00-3.75000E-01
 -1        42 1.00000E+00 0.00000E+00-5.62500E-01
 -1        43 1.00000E+00 0.00000E+00-7.50000E-01
 -1        44 1.00000E+00 0.00000E+00-9.37500E-01
 -1        45 1.00000E+00 0.00000E+00-1.12500E+00
 -1        46 1.00000E+00 0.00000E+00-1.31250E+00
 -1        47 1.66667E-01 0.00000E+00 0.00000E+00
 -1        48 3.33333E-01 0.00000E+00 0.00000E+00
 -1        49 5.00000E-01 0.00000E+00 0.00000E+00
 -1        50 6.66667E-01 0.00000E+00 0.00000E+00
 -1        51 8.33333E-01 0.00000E+00 0.00000E+00
 -1        52 1.00000E+00 1.81818E-01 0.00000E+00
 -1        53 1.00000E+00 3.63636E-01 0.00000E+00
 -1        54 1.00000E+00 5.45455E-01 0.00000E+00
 -1        55 1.00000E+00 7.27273E-01 0.00000E+00
 -1        56 1.00000E+00 9.09091E-01 0.00000E+00
 -1        57 1.00000E+00 1.09091E+00 0.00000E+00
 -1        58 1.00000E+00 1.27273E+00 0.00000E+00
 -1        59 1.00000E+00 1.45455E+00 0.00000E+00
 -1        60 1.00000E+00 1.63636E+00 0.00000E+00
 -1        61 1.00000E+00 1.81818E+00 0.00000E+00
 -1        62 1.00000E+00 2.00000E+00 0.00000E+00
 -1        63 1.00000E+00 2.18182E+00 0.00000E+00
 -1        64 1.00000E+00 2.36364E+00 0.00000E+00
 -1        65 1.00000E+00 2.54545E+00 0.00000E+00
 -1        66 1.00000E+00 2.72727E+00 0.00000E+00
 -1        67 1.00000E+00 2.90909E+00 0.00000E+00
 -1        68 1.00000E+00 3.09091E+00 0.00000E+00
 -1        69 1.00000E+00 3.27273E+00 0.00000E+00
 -1        70 1.00000E+00 3.45455E+00 0.00000E+00
 -1        71 1.00000E+00 3.63636E+00 0.00000E+00
 -1        72 1.00000E+00 3.81818E+00 0.00000E+00
 -1        73 1.00000E+00 4.00000E+00 0.00000E+00
 -1        74 1.00000E+00 4.18182E+00 0.00000E+00
 -1        75 1.00000E+00 4.36364E+00 0.00000E+00
 -1        76 1.00000E+00 4.54545E+00 0.00000E+00
 -1        77 1.00000E+00 4.72727E+00 0.00000E+00
 -1        78 1.00000E+00 4.90909E+00 0.00000E+00
 -1        79 1.00000E+00 5.09091E+00 0.00000E+00
 -1        80 1.00000E+00 5.27273E+00 0.00000E+00
 -1        81 1.00000E+00 5.45455E+00 0.00000E+00
 -1        82 1.00000E+00 5.63636E+00 0.00000E+00
 -1        83 1.00000E+00 5.81818E+00 0.00000E+00
 -1        84 1.00000E+00 6.00000E+00 0.00000E+00
 -1        85 1.00000E+00 6.18182E+00 0.00000E+00
 -1        86 1.00000E+00 6.36364E+00 0.00000E+00
 -1        87 1.00000E+00 6.54545E+00 0.00000E+00
 -1        88 1.00000E+00 6.72727E+00 0.00000E+00
 -1        89 1.00000E+00 6.90909E+00 0.00000E+00
 -1        90 1.00000E+00 7.09091E+00 0.00000E+00
 -1        91 1.00000E+00 7.27273E+00 0.00000E+00
 -1        92 1.00000E+00 7.45455E+00 0.00000E+00
 -1        93 1.00000E+00 7.63636E+00 0.00000E+00
 -1        94 1.00000E+00 7.81818E+00 0.00000E+00
 -1        95 1.66667E-01 8.00000E+00 0.00000E+00
 -1        96 3.33333E-01 8.00000E+00 0.00000E+00
 -1        97 5.00000E-01 8.00000E+00 0.00000E+00
 -1        98 6.66667E-01 8.00000E+00 0.00000E+00
 -1        99 8.33333E-01 8.00000E+00 0.00000E+00
 -1       100 0.00000E+00 1.81818E-01 0.00000E+00
 -1       101 0.00000E+00 3.63636E-01 0.00000E+00
 -1       102 0.00000E+00 5.45455E-01 0.00000E+00
 -1       103 0.00000E+00 7.27273E-01 0.00000E+00
 -1       104 0.00000E+00 9.09091E-01 0.00000E+00
 -1       105 0.00000E+00 1.09091E+00 0.00000E+00
 -1       106 0.00000E+00 1.27273E+00 0.00000E+00
 -1       107 0.00000E+00 1.45455E+00 0.00000E+00
 -1       108 0.00000E+00 1.63636E+00 0.00000E+00
 -1       109 0.00000E+00 1.81818E+00 0.00000E+00
 -1       110 0.00000E+00 2.00000E+00 0.00000E+00
 -1       111 0.00000E+00 2.18182E+00 0.00000E+00
 -1       112 0.00000E+00 2.36364E+00 0.00000E+00
 -1       113 0.00000E+00 2.54545E+00 0.00000E+00
 -1       114 0.00000E+00 2.72727E+00 0.00000E+00
 -1       115 0.00000E+00 2.90909E+00 0.00000E+00
 -1       116 0.00000E+00 3.09091E+00 0.00000E+00
 -1       117 0.00000E+00 3.27273E+00 0.00000E+00
 -1       118 0.00000E+00 3.45455E+00 0.00000E+00
 -1       119 0.00000E+00 3.63636E+00 0.00000E+00
 -1       120 0.00000E+00 3.81818E+00 0.00000E+00
 -1       121 0.00000E+00 4.00000E+00 0.00000E+00
 -1       122 0.00000E+00 4.18182E+00 0.00000E+00
 -1       123 0.00000E+00 4.36364E+00 0.00000E+00
 -1       124 0.00000E+00 4.54545E+00 0.00000E+00
 -1       125 0.00000E+00 4.72727E+00 0.00000E+00
 -1       126 0.00000E+00 4.90909E+00 0.00000E+00
 -1       127 0.00000E+00 5.09091E+00 0.00000E+00
 -1       128 0.00000E+00 5.27273E+00 0.00000E+00
 -1       129 0.00000E+00 5.45455E+00 0.00000E+00
 -1       130 0.00000E+00 5.63636E+00 0.00000E+00
 -1       131 0.00000E+00 5.81818E+00 0.00000E+00
 -1       132 0.00000E+00 6.00000E+00 0.00000E+00
 -1       133 0.00000E+00 6.18182E+00 0.00000E+00
 -1       134 0.00000E+00 6.36364E+00 0.00000E+00
 -1       135 0.00000E+00 6.54545E+00 0.00000E+00
 -1       136 0.00000E+00 6.72727E+00 0.00000E+00
 -1       137 0.00000E+00 6.90909E+00 0.00000E+00
 -1       138 0.00000E+00 7.09091E+00 0.00000E+00
 -1       139 0.00000E+00 7.27273E+00 0.00000E+00
 -1       140 0.00000E+00 7.45455E+00 0.00000E+00
 -1       141 0.00000E+00 7.63636E+00 0.00000E+00
 -1       142 0.00000E+00 7.81818E+00 0.00000E+00
 -1       143 0.00000E+00 8.00000E+00-1.31250E+00
 -1       144 0.00000E+00 8.00000E+00-1.12500E+00
 -1       145 0.00000E+00 8.00000E+00-9.37500E-01
 -1       146 0.00000E+00 8.00000E+00-7.50000E-01
 -1       147 0.00000E+00 8.00000E+00-5.62500E-01
 -1       148 0.00000E+00 8.00000E+00-3.75000E-01
 -1       149 0.00000E+00 8.00000E+00-1.87500E-01
 -1       150 0.00000E+00 1.81818E-01-1.50000E+00
 -1       151 0.00000E+00 3.63636E-01-1.50000E+00
 -1       152 0.00000E+00 5.45455E-01-1.50000E+00
 -1       153 0.00000E+00 7.27273E-01-1.50000E+00
 -1       154 0.00000E+00 9.09091E-01-1.50000E+00
 -1       155 0.00000E+00 1.09091E+00-1.50000E+00
 -1       156 0.00000E+00 1.27273E+00-1.50000E+00
 -1       157 0.00000E+00 1.45455E+00-1.50000E+00
 -1       158 0.00000E+00 1.63636E+00-1.50000E+00
 -1       159 0.00000E+00 1.81818E+00-1.50000E+00
 -1       160 0.00000E+00 2.00000E+00-1.50000E+00
 -1       161 0.00000E+00 2.18182E+00-1.50000E+00
 -1       162 0.00000E+00 2.36364E+00-1.50000E+00
 -1       163 0.00000E+00 2.54545E+00-1.50000E+00
 -1       164 0.00000E+00 2.72727E+00-1.50000E+00
 -1       165 0.00000E+00 2.90909E+00-1.50000E+00
 -1       166 0.00000E+00 3.09091E+00-1.50000E+00
 -1       167 0.00000E+00 3.27273E+00-1.50000E+00
 -1       168 0.00000E+00 3.45455E+00-1.50000E+00
 -1       169 0.00000E+00 3.63636E+00-1.50000E+00
 -1       170 0.00000E+00 3.81818E+00-1.50000E+00
 -1       171 0.00000E+00 4.00000E+00-1.50000E+00
 -1       172 0.00000E+00 4.18182E+00-1.50000E+00
 -1       173 0.00000E+00 4.36364E+00-1.50000E+00
 -1       174 0.00000E+00 4.54545E+00-1.50000E+00
 -1       175 0.00000E+00 4.72727E+00-1.50000E+00
 -1       176 0.00000E+00 4.90909E+00-1.50000E+00
 -1       177 0.00000E+00 5.09091E+00-1.50000E+00
 -1       178 0.00000E+00 5.27273E+00-1.50000E+00
 -1       179 0.00000E+00 5.45455E+00-1.50000E+00
 -1       180 0.00000E+00 5.63636E+00-1.50000E+00
 -1       181 0.00000E+00 5.81818E+00-1.50000E+00
 -1       182 0.00000E+00 6.00000E+00-1.50000E+00
 -1       183 0.00000E+00 6.18182E+00-1.50000E+00
 -1       184 0.00000E+00 6.36364E+00-1.50000E+00
 -1       185 0.00000E+00 6.54545E+00-1.50000E+00
 -1       186 0.00000E+00 6.72727E+00-1.50000E+00
 -1       187 0.00000E+00 6.90909E+00-1.50000E+00
 -1       188 0.00000E+00 7.09091E+00-1.50000E+00
 -1       189 0.00000E+00 7.27273E+00-1.50000E+00
 -1       190 0.00000E+00 7.45455E+00-1.50000E+00
 -1       191 0.00000E+00 7.63636E+00-1.50000E+00
 -1       192 0.00000E+00 7.81818E+00-1.50000E+00
 -1       193 8.33333E-01 8.00000E+00-1.50000E+00
 -1       194 6.66667E-01 8.00000E+00-1.50000E+00
 -1       195 5.00000E-01 8.00000E+00-1.50000E+00
 -1       196 3.33333E-01 8.00000E+00-1.50000E+00
 -1       197 1.66667E-01 8.00000E+00-1.50000E+00
 -1       198 1.00000E+00 1.81818E-01-1.50000E+00
 -1       199 1.00000E+00 3.63636E-01-1.50000E+00
 -1       200 1.00000E+00 5.45455E-01-1.50000E+00
 -1       201 1.00000E+00 7.27273E-01-1.50000E+00
 -1       202 1.00000E+00 9.09091E-01-1.50000E+00
 -1       203 1.00000E+00 1.09091E+00-1.50000E+00
 -1       204 1.00000E+00 1.27273E+00-1.50000E+00
 -1       205 1.00000E+00 1.45455E+00-1.50000E+00
 -1       206 1.00000E+00 1.63636E+00-1.50000E+00
 -1       207 1.00000E+00 1.81818E+00-1.50000E+00
 -1       208 1.00000E+00 2.00000E+00-1.50000E+00
 -1       209 1.00000E+00 2.18182E+00-1.50000E+00
 -1       210 1.00000E+00 2.36364E+00-1.50000E+00
 -1       211 1.00000E+00 2.54545E+00-1.50000E+00
 -1       212 1.00000E+00 2.72727E+00-1.50000E+00
 -1       213 1.00000E+00 2.90909E+00-1.50000E+00
 -1       214 1.00000E+00 3.09091E+00-1.50000E+00
 -1       215 1.00000E+00 3.27273E+00-1.50000E+00
 -1       216 1.00000E+00 3.45455E+00-1.50000E+00
 -1       217 1.00000E+00 3.63636E+00-1.50000E+00
 -1       218 1.00000E+00 3.81818E+00-1.50000E+00
 -1       219 1.00000E+00 4.00000E+00-1.50000E+00
 -1       220 1.00000E+00 4.18182E+00-1.50000E+00
 -1       221 1.00000E+00 4.36364E+00-1.50000E+00
 -1       222 1.00000E+00 4.54545E+00-1.50000E+00
 -1       223 1.00000E+00 4.72727E+00-1.50000E+00
 -1       224 1.00000E+00 4.90909E+00-1.50000E+00
 -1       225 1.00000E+00 5.09091E+00-1.50000E+00
 -1       226 1.00000E+00 5.27273E+00-1.50000E+00
 -1       227 1.00000E+00 5.45455E+00-1.50000E+00
 -1       228 1.00000E+00 5.63636E+00-1.50000E+00
 -1       229 1.00000E+00 5.81818E+00-1.50000E+00
 -1       230 1.00000E+00 6.00000E+00-1.50000E+00
 -1       231 1.00000E+00 6.18182E+00-1.50000E+00
 -1       232 1.00000E+00 6.36364E+00-1.50000E+00
 -1       233 1.00000E+00 6.54545E+00-1.50000E+00
 -1       234 1.00000E+00 6.72727E+00-1.50000E+00
 -1       235 1.00000E+00 6.90909E+00-1.50000E+00
 -1       236 1.00000E+00 7.09091E+00-1.50000E+00
 -1       237 1.00000E+00 7.27273E+00-1.50000E+00
 -1       238 1.00000E+00 7.45455E+00-1.50000E+00
 -1       239 1.00000E+00 7.63636E+00-1.50000E+00
 -1       240 1.00000E+00 7.81818E+00-1.50000E+00
 -1       241 1.00000E+00 8.00000E+00-1.87500E-01
 -1       242 1.00000E+00 8.00000E+00-3.75000E-01
 -1       243 1.00000E+00 8.00000E+00-5.62500E-01
 -1       244 1.00000E+00 8.00000E+00-7.50000E-01
 -1       245 1.00000E+00 8.00000E+00-9.37500E-01
 -1       246 1.00000E+00 8.00000E+00-1.12500E+00
 -1       247 1.00000E+00 8.00000E+00-1.31250E+00
 -1       248 1.66667E-01 0.00000E+00-1.31250E+00
 -1       249 3.33333E-01 0.00000E+00-1.31250E+00
 -1       250 5.00000E-01 0.00000E+00-1.31250E+00
 -1       251 6.66667E-01 0.00000E+00-1.31250E+00
 -1       252 8.33333E-01 0.00000E+00-1.31250E+00
 -1       253 1.66667E-01 0.00000E+00-1.12500E+00
 -1       254 3.33333E-01 0.00000E+00-1.12500E+00
 -1       255 5.00000E-01 0.00000E+00-1.12500E+00
 -1       256 6.66667E-01 0.00000E+00-1.12500E+00
 -1       257 8.33333E-01 0.00000E+00-1.12500E+00
 -1       258 1.66667E-01 0.00000E+00-9.37500E-01
 -1       259 3.33333E-01 0.00000E+00-9.37500E-01
 -1       260 5.00000E-01 0.00000E+00-9.37500E-01
 -1       261 6.66667E-01 0.00000E+00-9.37500E-01
 -1       262 8.33333E-01 0.00000E+00-9.37500E-01
 -1       263 1.66667E-01 0.00000E+00-7.50000E-01
 -1       264 3.33333E-01 0.00000E+00-7.50000E-01
 -1       265 5.00000E-01 0.00000E+00-7.50000E-01
 -1       266 6.66667E-01 0.00000E+00-7.50000E-01
 -1       267 8.33333E-01 0.00000E+00-7.50000E-01
 -1       268 1.66667E-01 0.00000E+00-5.62500E-01
 -1       269 3.33333E-01 0.00000E+00-5.62500E-01
 -1       270 5.00000E-01 0.00000E+00-5.62500E-01
 -1       271 6.66667E-01 0.00000E+00-5.62500E-01
 -1       272 8.33333E-01 0.00000E+00-5.62500E-01
 -1       273 1.66667E-01 0.00000E+00-3.75000E-01
 -1       274 3.33333E-01 0.00000E+00-3.75000E-01
 -1       275 5.00000E-01 0.00000E+00-3.75000E-01
 -1       276 6.66667E-01 0.00000E+00-3.75000E-01
 -1       277 8.33333E-01 0.00000E+00-3.75000E-01
 -1       278 1.66667E-01 0.00000E+00-1.87500E-01
 -1       279 3.33333E-01 0.00000E+00-1.87500E-01
 -1       280 5.00000E-01 0.00000E+00-1.87500E-01
 -1       281 6.66667E-01 0.00000E+00-1.87500E-01
 -1       282 8.33333E-01 0.00000E+00-1.87500E-01
 -1       283 8.33333E-01 1.81818E-01 0.00000E+00
 -1       284 6.66667E-01 1.81818E-01 0.00000E+00
 -1       285 5.00000E-01 1.81818E-01 0.00000E+00
 -1       286 3.33333E-01 1.81818E-01 0.00000E+00
 -1       287 1.66667E-01 1.81818E-01 0.00000E+00
 -1       288 8.33333E-01 3.63636E-01 0.00000E+00
 -1       289 6.66667E-01 3.63636E-01 0.00000E+00
 -1       290 5.00000E-01 3.63636E-01 0.00000E+00
 -1       291 3.33333E-01 3.63636E-01 0.00000E+00
 -1       292 1.66667E-01 3.63636E-01 0.00000E+00
 -1       293 8.33333E-01 5.45455E-01 0.00000E+00
 -1       294 6.66667E-01 5.45455E-01 0.00000E+00
 -1       295 5.00000E-01 5.45455E-01 0.00000E+00
 -1       296 3.33333E-01 5.45455E-01 0.00000E+00
 -1       297 1.66667E-01 5.45455E-01 0.00000E+00
 -1       298 8.33333E-01 7.27273E-01 0.00000E+00
 -1       299 6.66667E-01 7.27273E-01 0.00000E+00
 -1       300 5.00000E-01 7.27273E-01 0.00000E+00
 -1       301 3.33333E-01 7.27273E-01 0.00000E+00
 -1       302 1.66667E-01 7.27273E-01 0.00000E+00
 -1       303 8.33333E-01 9.09091E-01 0.00000E+00
 -1       304 6.66667E-01 9.09091E-01 0.00000E+00
 -1       305 5.00000E-01 9.09091E-01 0.00000E+00
 -1       306 3.33333E-01 9.09091E-01 0.00000E+00
 -1       307 1.66667E-01 9.09091E-01 0.00000E+00
 -1       308 8.33333E-01 1.09091E+00 0.00000E+00
 -1       309 6.66667E-01 1.09091E+00 0.00000E+00
 -1       310 5.00000E-01 1.09091E+00 0.00000E+00
 -1       311 3.33333E-01 1.09091E+00 0.00000E+00
 -1       312 1.66667E-01 1.09091E+00 0.00000E+00
 -1       313 8.33333E-01 1.27273E+00 0.00000E+00
 -1       314 6.66667E-01 1.27273E+00 0.00000E+00
 -1       315 5.00000E-01 1.27273E+00 0.00000E+00
 -1       316 3.33333E-01 1.27273E+00 0.00000E+00
 -1       317 1.66667E-01 1.27273E+00 0.00000E+00
 -1       318 8.33333E-01 1.45455E+00 0.00000E+00
 -1       319 6.66667E-01 1.45455E+00 0.00000E+00
 -1       320 5.00000E-01 1.45455E+00 0.00000E+00
 -1       321 3.33333E-01 1.45455E+00 0.00000E+00
 -1       322 1.66667E-01 1.45455E+00 0.00000E+00
 -1       323 8.33333E-01 1.63636E+00 0.00000E+00
 -1       324 6.66667E-01 1.63636E+00 0.00000E+00
 -1       325 5.00000E-01 1.63636E+00 0.00000E+00
 -1       326 3.33333E-01 1.63636E+00 0.00000E+00
 -1       327 1.66667E-01 1.63636E+00 0.00000E+00
 -1       328 8.33333E-01 1.81818E+00 0.00000E+00
 -1       329 6.66667E-01 1.81818E+00 0.00000E+00
 -1       330 5.00000E-01 1.81818E+00 0.00000E+00
 -1       331 3.33333E-01 1.81818E+00 0.00000E+00
 -1       332 1.66667E-01 1.81818E+00 0.00000E+00
 -1       333 8.33333E-01 2.00000E+00 0.00000E+00
 -1       334 6.66667E-01 2.00000E+00 0.00000E+00
 -1       335 5.00000E-01 2.00000E+00 0.00000E+00
 -1       336 3.33333E-01 2.00000E+00 0.00000E+00
 -1       337 1.66667E-01 2.00000E+00 0.00000E+00
 -1       338 8.33333E-01 2.18182E+00 0.00000E+00
 -1       339 6.66667E-01 2.18182E+00 0.00000E+00
 -1       340 5.00000E-01 2.18182E+00 0.00000E+00
 -1       341 3.33333E-01 2.18182E+00 0.00000E+00
 -1       342 1.66667E-01 2.18182E+00 0.00000E+00
 -1       343 8.33333E-01 2.36364E+00 0.00000E+00
 -1       344 6.66667E-01 2.36364E+00 0.00000E+00
 -1       345 5.00000E-01 2.36364E+00 0.00000E+00
 -1       346 3.33333E-01 2.36364E+00 0.00000E+00
 -1       347 1.66667E-01 2.36364E+00 0.00000E+00
 -1       348 8.33333E-01 2.54545E+00 0.00000E+00
 -1       349 6.66667E-01 2.54545E+00 0.00000E+00
 -1       350 5.00000E-01 2.54545E+00 0.00000E+00
 -1       351 3.33333E-01 2.54545E+00 0.00000E+00
 -1       352 1.66667E-01 2.54545E+00 0.00000E+00
 -1       353 8.33333E-01 2.72727E+00 0.00000E+00
 -1       354 6.66667E-01 2.72727E+00 0.00000E+00
 -1       355 5.00000E-01 2.72727E+00 0.00000E+00
 -1       356 3.33333E-01 2.72727E+00 0.00000E+00
 -1       357 1.66667E-01 2.72727E+00 0.00000E+00
 -1       358 8.33333E-01 2.90909E+00 0.00000E+00
 -1       359 6.66667E-01 2.90909E+00 0.00000E+00
 -1       360 5.00000E-01 2.90909E+00 0.00000E+00
 -1       361 3.33333E-01 2.90909E+00 0.00000E+00
 -1       362 1.66667E-01 2.90909E+00 0.00000E+00
 -1       363 8.33333E-01 3.09091E+00 0.00000E+00
 -1       364 6.66667E-01 3.09091E+00 0.00000E+00
 -1       365 5.00000E-01 3.09091E+00 0.00000E+00
 -1       366 3.33333E-01 3.09091E+00 0.00000E+00
 -1       367 1.66667E-01 3.09091E+00 0.00000E+00
 -1       368 8.33333E-01 3.27273E+00 0.00000E+00
 -1       369 6.66667E-01 3.27273E+00 0.00000E+00
 -1       370 5.00000E-01 3.27273E+00 0.00000E+00
 -1       371 3.33333E-01 3.27273E+00 0.00000E+00
 -1       372 1.66667E-01 3.27273E+00 0.00000E+00
 -1       373 8.33333E-01 3.45455E+00 0.00000E+00
 -1       374 6.66667E-01 3.45455E+00 0.00000E+00
 -1       375 5.00000E-01 3.45455E+00 0.00000E+00
 -1       376 3.33333E-01 3.45455E+00 0.00000E+00
 -1       377 1.66667E-01 3.45455E+00 0.00000E+00
 -1       378 8.33333E-01 3.63636E+00 0.00000E+00
 -1       379 6.66667E-01 3.63636E+00 0.00000E+00
 -1       380 5.00000E-01 3.63636E+00 0.00000E+00
 -1       381 3.33333E-01 3.63636E+00 0.00000E+00
 -1       382 1.66667E-01 3.63636E+00 0.00000E+00
 -1       383 8.33333E-01 3.81818E+00 0.00000E+00
 -1       384 6.66667E-01 3.81818E+00 0.00000E+00
 -1       385 5.00000E-01 3.81818E+00 0.00000E+00
 -1       386 3.33333E-01 3.81818E+00 0.00000E+00
 -1       387 1.66667E-01 3.81818E+00 0.00000E+00
 -1       388 8.33333E-01 4.00000E+00 0.00000E+00
 -1       389 6.66667E-01 4.00000E+00 0.00000E+00
 -1       390 5.00000E-01 4.00000E+00 0.00000E+00
 -1       391 3.33333E-01 4.00000E+00 0.00000E+00
 -1       392 1.66667E-01 4.00000E+00 0.00000E+00
 -1       393 8.33333E-01 4.18182E+00 0.00000E+00
 -1       394 6.66667E-01 4.18182E+00 0.00000E+00
 -1       395 5.00000E-01 4.18182E+00 0.00000E+00
 -1       396 3.33333E-01 4.18182E+00 0.00000E+00
 -1       397 1.66667E-01 4.18182E+00 0.00000E+00
 -1       398 8.33333E-01 4.36364E+00 0.00000E+00
 -1       399 6.66667E-01 4.36364E+00 0.00000E+00
 -1       400 5.00000E-01 4.36364E+00 0.00000E+00
 -1       401 3.33333E-01 4.36364E+00 0.00000E+00
 -1       402 1.66667E-01 4.36364E+00 0.00000E+00
 -1       403 8.33333E-01 4.54545E+00 0.00000E+00
 -1       404 6.66667E-01 4.54545E+00 0.00000E+00
 -1       405 5.00000E-01 4.54545E+00 0.00000E+00
 -1       406 3.33333E-01 4.54545E+00 0.00000E+00
 -1       407 1.66667E-01 4.54545E+00 0.00000E+00
 -1       408 8.33333E-01 4.72727E+00 0.00000E+00
 -1       409 6.66667E-01 4.72727E+00 0.00000E+00
 -1       410 5.00000E-01 4.72727E+00 0.00000E+00
 -1       411 3.33333E-01 4.72727E+00 0.00000E+00
 -1       412 1.66667E-01 4.72727E+00 0.00000E+00
 -1       413 8.33333E-01 4.90909E+00 0.00000E+00
 -1       414 6.66667E-01 4.90909E+00 0.00000E+00
 -1       415 5.00000E-01 4.90909E+00 0.00000E+00
 -1       416 3.33333E-01 4.90909E+00 0.00000E+00
 -1       417 1.66667E-01 4.90909E+00 0.00000E+00
 -1       418 8.33333E-01 5.09091E+00 0.00000E+00
 -1       419 6.66667E-01 5.09091E+00 0.00000E+00
 -1       420 5.00000E-01 5.09091E+00 0.00000E+00
 -1       421 3.33333E-01 5.09091E+00 0.00000E+00
 -1       422 1.66667E-01 5.09091E+00 0.00000E+00
 -1       423 8.33333E-01 5.27273E+00 0.00000E+00
 -1       424 6.66667E-01 5.27273E+00 0.00000E+00
 -1       425 5.00000E-01 5.27273E+00 0.00000E+00
 -1       426 3.33333E-01 5.27273E+00 0.00000E+00
 -1       427 1.66667E-01 5.27273E+00 0.00000E+00
 -1       428 8.33333E-01 5.45455E+00 0.00000E+00
 -1       429 6.66667E-01 5.45455E+00 0.00000E+00
 -1       430 5.00000E-01 5.45455E+00 0.00000E+00
 -1       431 3.33333E-01 5.45455E+00 0.00000E+00
 -1       432 1.66667E-01 5.45455E+00 0.00000E+00
 -1       433 8.33333E-01 5.63636E+00 0.00000E+00
 -1       434 6.66667E-01 5.63636E+00 0.00000E+00
 -1       435 5.00000E-01 5.63636E+00 0.00000E+00
 -1       436 3.33333E-01 5.63636E+00 0.00000E+00
 -1       437 1.66667E-01 5.63636E+00 0.00000E+00
 -1       438 8.33333E-01 5.81818E+00 0.00000E+00
 -1       439 6.66667E-01 5.81818E+00 0.00000E+00
 -1       440 5.00000E-01 5.81818E+00 0.00000E+00
 -1       441 3.33333E-01 5.81818E+00 0.00000E+00
 -1       442 1.66667E-01 5.81818E+00 0.00000E+00
 -1       443 8.33333E-01 6.00000E+00 0.00000E+00
 -1       444 6.66667E-01 6.00000E+00 0.00000E+00
 -1       445 5.00000E-01 6.00000E+00 0.00000E+00
 -1       446 3.33333E-01 6.00000E+00 0.00000E+00
 -1       447 1.66667E-01 6.00000E+00 0.00000E+00
 -1       448 8.33333E-01 6.18182E+00 0.00000E+00
 -1       449 6.66667E-01 6.18182E+00 0.00000E+00
 -1       450 5.00000E-01 6.18182E+00 0.00000E+00
 -1       451 3.33333E-01 6.18182E+00 0.00000E+00
 -1       452 1.66667E-01 6.18182E+00 0.00000E+00
 -1       453 8.33333E-01 6.36364E+00 0.00000E+00
 -1       454 6.66667E-01 6.36364E+00 0.00000E+00
 -1       455 5.00000E-01 6.36364E+00 0.00000E+00
 -1       456 3.33333E-01 6.36364E+00 0.00000E+00
 -1       457 1.66667E-01 6.36364E+00 0.00000E+00
 -1       458 8.33333E-01 6.54545E+00 0.00000E+00
 -1       459 6.66667E-01 6.54545E+00 0.00000E+00
 -1       460 5.00000E-01 6.54545E+00 0.00000E+00
 -1       461 3.33333E-01 6.54545E+00 0.00000E+00
 -1       462 1.66667E-01 6.54545E+00 0.00000E+00
 -1       463 8.33333E-01 6.72727E+00 0.00000E+00
 -1       464 6.66667E-01 6.72727E+00 0.00000E+00
 -1       465 5.00000E-01 6.72727E+00 0.00000E+00
 -1       466 3.33333E-01 6.72727E+00 0.00000E+00
 -1       467 1.66667E-01 6.72727E+00 0.00000E+00
 -1       468 8.33333E-01 6.90909E+00 0.00000E+00
 -1       469 6.66667E-01 6.90909E+00 0.00000E+00
 -1       470 5.00000E-01 6.90909E+00 0.00000E+00
 -1       471 3.33333E-01 6.90909E+00 0.00000E+00
 -1       472 1.66667E-01 6.90909E+00 0.00000E+00
 -1       473 8.33333E-01 7.09091E+00 0.00000E+00
 -1       474 6.66667E-01 7.09091E+00 0.00000E+00
 -1       475 5.00000E-01 7.09091E+00 0.00000E+00
 -1       476 3.33333E-01 7.09091E+00 0.00000E+00
 -1       477 1.66667E-01 7.09091E+00 0.00000E+00
 -1       478 8.33333E-01 7.27273E+00 0.00000E+00
 -1       479 6.66667E-01 7.27273E+00 0.00000E+00
 -1       480 5.00000E-01 7.27273E+00 0.00000E+00
 -1       481 3.33333E-01 7.27273E+00 0.00000E+00
 -1       482 1.66667E-01 7.27273E+00 0.00000E+00
 -1       483 8.33333E-01 7.45455E+00 0.00000E+00
 -1       484 6.66667E-01 7.45455E+00 0.00000E+00
 -1       485 5.00000E-01 7.45455E+00 0.00000E+00
 -1       486 3.33333E-01 7.45455E+00 0.00000E+00
 -1       487 1.66667E-01 7.45455E+00 0.00000E+00
 -1       488 8.33333E-01 7.63636E+00 0.00000E+00
 -1       489 6.66667E-01 7.63636E+00 0.00000E+00
 -1       490 5.00000E-01 7.63636E+00 0.00000E+00
 -1       491 3.33333E-01 7.63636E+00 0.00000E+00
 -1       492 1.66667E-01 7.63636E+00 0.00000E+00
 -1       493 8.33333E-01 7.81818E+00 0.00000E+00
 -1       494 6.66667E-01 7.81818E+00 0.00000E+00
 -1       495 5.00000E-01 7.81818E+00 0.00000E+00
 -1       496 3.33333E-01 7.81818E+00 0.00000E+00
 -1       497 1.66667E-01 7.81818E+00 0.00000E+00
 -1       498 0.00000E+00 1.81818E-01-1.87500E-01
 -1       499 0.00000E+00 1.81818E-01-3.75000E-01
 -1       500 0.00000E+00 1.81818E-01-5.62500E-01
 -1       501 0.00000E+00 1.81818E-01-7.50000E-01
 -1       502 0.00000E+00 1.81818E-01-9.37500E-01
 -1       503 0.00000E+00 1.81818E-01-1.12500E+00
 -1       504 0.00000E+00 1.81818E-01-1.31250E+00
 -1       505 0.00000E+00 3.63636E-01-1.87500E-01
 -1       506 0.00000E+00 3.63636E-01-3.75000E-01
 -1       507 0.00000E+00 3.63636E-01-5.62500E-01
 -1       508 0.00000E+00 3.63636E-01-7.50000E-01
 -1       509 0.00000E+00 3.63636E-01-9.37500E-01
 -1       510 0.00000E+00 3.63636E-01-1.12500E+00
 -1       511 0.00000E+00 3.63636E-01-1.31250E+00
 -1       512 0.00000E+00 5.45455E-01-1.87500E-01
 -1       513 0.00000E+00 5.45455E-01-3.75000E-01
 -1       514 0.00000E+00 5.45455E-01-5.62500E-01
 -1       515 0.00000E+00 5.45455E-01-7.50000E-01
 -1       516 0.00000E+00 5.45455E-01-9.37500E-01
 -1       517 0.00000E+00 5.45455E-01-1.12500E+00
 -1       518 0.00000E+00 5.45455E-01-1.31250E+00
 -1       519 0.00000E+00 7.27273E-01-1.87500E-01
 -1       520 0.00000E+00 7.27273E-01-3.75000E-01
 -1       521 0.00000E+00 7.27273E-01-5.62500E-01
 -1       522 0.00000E+00 7.27273E-01-7.50000E-01
 -1       523 0.00000E+00 7.27273E-01-9.37500E-01
 -1       524 0.00000E+00 7.27273E-01-1.12500E+00
 -1       525 0.00000E+00 7.27273E-01-1.31250E+00
 -1       526 0.00000E+00 9.09091E-01-1.87500E-01
 -1       527 0.00000E+00 9.09091E-01-3.75000E-01
 -1       528 0.00000E+00 9.09091E-01-5.62500E-01
 -1       529 0.00000E+00 9.09091E-01-7.50000E-01
 -1       530 0.00000E+00 9.09091E-01-9.37500E-01
 -1       531 0.00000E+00 9.09091E-01-1.12500E+00
 -1       532 0.00000E+00 9.09091E-01-1.31250E+00
 -1       533 0.00000E+00 1.09091E+00-1.87500E-01
 -1       534 0.00000E+00 1.09091E+00-3.75000E-01
 -1       535 0.00000E+00 1.09091E+00-5.62500E-01
 -1       536 0.00000E+00 1.09091E+00-7.50000E-01
 -1       537 0.00000E+00 1.09091E+00-9.37500E-01
 -1       538 0.00000E+00 1.09091E+00-1.12500E+00
 -1       539 0.00000E+00 1.09091E+00-1.31250E+00
 -1       540 0.00000E+00 1.27273E+00-1.87500E-01
 -1       541 0.00000E+00 1.27273E+00-3.75000E-01
 -1       542 0.00000E+00 1.27273E+00-5.62500E-01
 -1       543 0.00000E+00 1.27273E+00-7.50000E-01
 -1       544 0.00000E+00 1.27273E+00-9.37500E-01
 -1       545 0.00000E+00 1.27273E+00-1.12500E+00
 -1       546 0.00000E+00 1.27273E+00-1.31250E+00
 -1       547 0.00000E+00 1.45455E+00-1.87500E-01
 -1       548 0.00000E+00 1.45455E+00-3.75000E-01
 -1       549 0.00000E+00 1.45455E+00-5.62500E-01
 -1       550 0.00000E+00 1.45455E+00-7.50000E-01
 -1       551 0.00000E+00 1.45455E+00-9.37500E-01
 -1       552 0.00000E+00 1.45455E+00-1.12500E+00
 -1       553 0.00000E+00 1.45455E+00-1.31250E+00
 -1       554 0.00000E+00 1.63636E+00-1.87500E-01
 -1       555 0.00000E+00 1.63636E+00-3.75000E-01
 -1       556 0.00000E+00 1.63636E+00-5.62500E-01
 -1       557 0.00000E+00 1.63636E+00-7.50000E-01
 -1       558 0.00000E+00 1.63636E+00-9.37500E-01
 -1       559 0.00000E+00 1.63636E+00-1.12500E+00
 -1       560 0.00000E+00 1.63636E+00-1.31250E+00
 -1       561 0.00000E+00 1.81818E+00-1.87500E-01
 -1       562 0.00000E+00 1.81818E+00-3.75000E-01
 -1       563 0.00000E+00 1.81818E+00-5.62500E-01
 -1       564 0.00000E+00 1.81818E+00-7.50000E-01
 -1       565 0.00000E+00 1.81818E+00-9.37500E-01
 -1       566 0.00000E+00 1.81818E+00-1.12500E+00
 -1       567 0.00000E+00 1.81818E+00-1.31250E+00
 -1       568 0.00000E+00 2.00000E+00-1.87500E-01
 -1       569 0.00000E+00 2.00000E+00-3.75000E-01
 -1       570 0.00000E+00 2.00000E+00-5.62500E-01
 -1       571 0.00000E+00 2.00000E+00-7.50000E-01
 -1       572 0.00000E+00 2.00000E+00-9.37500E-01
 -1       573 0.00000E+00 2.00000E+00-1.12500E+00
 -1       574 0.00000E+00 2.00000E+00-1.31250E+00
 -1       575 0.00000E+00 2.18182E+00-1.87500E-01
 -1       576 0.00000E+00 2.18182E+00-3.75000E-01
 -1       577 0.00000E+00 2.18182E+00-5.62500E-01
 -1       578 0.00000E+00 2.18182E+00-7.50000E-01
 -1       579 0.00000E+00 2.18182E+00-9.37500E-01
 -1       580 0.00000E+00 2.18182E+00-1.12500E+00
 -1       581 0.00000E+00 2.18182E+00-1.31250E+00
 -1       582 0.00000E+00 2.36364E+00-1.87500E-01
 -1       583 0.00000E+00 2.36364E+00-3.75000E-01
 -1       584 0.00000E+00 2.36364E+00-5.62500E-01
 -1       585 0.00000E+00 2.36364E+00-7.50000E-01
 -1       586 0.00000E+00 2.36364E+00-9.37500E-01
 -1       587 0.00000E+00 2.36364E+00-1.12500E+00
 -1       588 0.00000E+00 2.36364E+00-1.31250E+00
 -1       589 0.00000E+00 2.54545E+00-1.87500E-01
 -1       590 0.00000E+00 2.54545E+00-3.75000E-01
 -1       591 0.00000E+00 2.54545E+00-5.62500E-01
 -1       592 0.00000E+00 2.54545E+00-7.50000E-01
 -1       593 0.00000E+00 2.54545E+00-9.37500E-01
 -1       594 0.00000E+00 2.54545E+00-1.12500E+00
 -1       595 0.00000E+00 2.54545E+00-1.31250E+00
 -1       596 0.00000E+00 2.72727E+00-1.87500E-01
 -1       597 0.00000E+00 2.72727E+00-3.75000E-01
 -1       598 0.00000E+00 2.72727E+00-5.62500E-01
 -1       599 0.00000E+00 2.72727E+00-7.50000E-01
 -1       600 0.00000E+00 2.72727E+00-9.37500E-01
 -1       601 0.00000E+00 2.72727E+00-1.12500E+00
 -1       602 0.00000E+00 2.72727E+00-1.31250E+00
 -1       603 0.00000E+00 2.90909E+00-1.87500E-01
 -1       604 0.00000E+00 2.90909E+00-3.75000E-01
 -1       605 0.00000E+00 2.90909E+00-5.62500E-01